# vtk DataFile Version 3.0
vtk output
ASCII
DATASET POLYDATA
POINTS 39645 float
0.633034 0.0961698 0.588328 0.654638 0.0984357 0.590327 0.675182 0.100431 0.591878 
0.695132 0.102204 0.593031 0.715115 0.1038 0.593815 0.7355 0.105238 0.594225 
0.75794 0.106604 0.594243 0.780388 0.107776 0.593894 0.805966 0.108928 0.593193 
0.8347 0.110079 0.592549 0.863444 0.111147 0.592367 0.894413 0.11236 0.592646 
0.925371 0.113721 0.593291 0.955884 0.115405 0.593789 0.986373 0.117537 0.59395 
1.01519 0.120122 0.59348 1.04058 0.122891 0.592505 1.06589 0.12612 0.590978 
1.08782 0.129268 0.589231 1.10711 0.132275 0.587407 1.12491 0.1352 0.585508 
1.14182 0.138018 0.583532 1.15869 0.140696 0.581462 1.1769 0.143294 0.579231 
1.1967 0.145738 0.576894 1.21894 0.148048 0.574404 1.24131 0.149974 0.572032 
1.26692 0.151848 0.569466 1.2964 0.153769 0.566726 1.32592 0.155599 0.564214 
1.35927 0.157711 0.56163 1.39264 0.159909 0.55928 1.42918 0.162419 0.556902 
1.46573 0.165004 0.554701 1.50431 0.167729 0.552515 1.5429 0.170424 0.550447 
1.58164 0.173055 0.548454 1.62038 0.175634 0.546518 1.65753 0.178089 0.544698 
1.69152 0.180423 0.543018 1.72549 0.182898 0.541287 1.75615 0.185317 0.53957 
1.78679 0.187899 0.537708 1.81565 0.190436 0.535833 1.84277 0.192918 0.534078 
1.86974 0.195507 0.532418 1.89408 0.198029 0.531053 1.91575 0.200469 0.529938 
1.93739 0.20312 0.528911 1.95688 0.205706 0.528063 1.97531 0.208348 0.527371 
1.99319 0.211107 0.526892 2.01075 0.213945 0.526716 2.02845 0.216799 0.526957 
2.04559 0.219374 0.527739 2.06236 0.221575 0.528815 2.07946 0.223488 0.529289 
2.09674 0.225245 0.528963 2.1152 0.226837 0.527824 2.13635 0.228207 0.52593 
2.16007 0.229144 0.523708 2.18456 0.229755 0.521844 2.21131 0.23061 0.520472 
2.24434 0.232513 0.519632 2.27735 0.234573 0.518655 2.30976 0.236655 0.516657 
2.34953 0.238465 0.512875 2.38939 0.238305 0.509853 2.40314 0.237614 0.509805 
2.4174 0.236652 0.510398 2.45865 0.231751 0.514088 2.4867 0.228141 0.514819 
2.50645 0.226251 0.513114 2.52436 0.224524 0.509944 2.54882 0.222151 0.503509 
2.57342 0.219815 0.496912 2.59529 0.217872 0.491639 2.60327 0.21767 0.489847 
0.612985 0.200641 0.639965 0.624799 0.201872 0.640276 0.653618 0.204769 0.640884 
0.682458 0.207485 0.641244 0.710892 0.20995 0.64132 0.739476 0.212187 0.641089 
0.768888 0.214211 0.640508 0.799897 0.216024 0.639534 0.830916 0.217519 0.638334 
0.864023 0.218818 0.637096 0.898627 0.22022 0.636556 0.933221 0.221906 0.636851 
0.967506 0.224188 0.637562 0.999785 0.226966 0.638116 1.03201 0.230346 0.638193 
1.06141 0.233867 0.637543 1.0881 0.237345 0.636306 1.11275 0.240745 0.634681 
1.1361 0.244105 0.632832 1.15861 0.247464 0.630905 1.18516 0.251495 0.628536 
1.21339 0.255672 0.625871 1.24337 0.259842 0.622873 1.2758 0.263981 0.619497 
1.31108 0.268043 0.615759 1.34641 0.271676 0.612031 1.38493 0.275199 0.608081 
1.42617 0.278604 0.604037 1.46746 0.281729 0.60019 1.51033 0.284838 0.596367 
1.55299 0.287881 0.592651 1.59581 0.290961 0.588939 1.63734 0.294033 0.585265 
1.67884 0.297237 0.58148 1.71804 0.300491 0.577746 1.75471 0.304034 0.573983 
1.79086 0.30828 0.569775 1.81642 0.311925 0.566304 1.84821 0.316724 0.561473 
1.87998 0.321333 0.556365 1.91093 0.32523 0.551579 1.9421 0.328666 0.547228 
1.9718 0.331956 0.543514 1.99683 0.335166 0.540674 2.02058 0.339014 0.538302 
2.04049 0.343013 0.53661 2.05894 0.346929 0.535202 2.07617 0.350385 0.533914 
2.09807 0.354161 0.532115 2.12901 0.358149 0.528907 2.15497 0.360382 0.525549 
2.17776 0.361737 0.522237 2.21638 0.363325 0.516557 2.24598 0.364308 0.512538 
2.29123 0.366129 0.506716 2.33898 0.369207 0.50038 2.38658 0.374082 0.49408 
2.42447 0.379332 0.489646 2.4625 0.384627 0.485276 2.53003 0.390712 0.47622 
2.56698 0.390619 0.469674 2.59018 0.389283 0.464926 2.60327 0.38807 0.462079 
0.588372 0.156541 0.686083 0.620732 0.159022 0.687455 0.652223 0.161367 0.688625 
0.683293 0.163554 0.68952 0.714383 0.165578 0.69009 0.74558 0.167415 0.690291 
0.777486 0.169073 0.690078 0.811181 0.170563 0.689381 0.846658 0.171843 0.688215 
0.882136 0.172985 0.686942 0.914795 0.174217 0.686219 0.95138 0.176299 0.686079 
0.987895 0.179333 0.686554 1.01607 0.18235 0.687077 1.04816 0.186381 0.687504 
1.07779 0.190541 0.687478 1.10555 0.194706 0.686898 1.13212 0.198888 0.685808 
1.15788 0.203144 0.684312 1.18421 0.207589 0.682408 1.21053 0.211911 0.68021 
1.24031 0.216454 0.677469 1.27258 0.220808 0.674322 1.30789 0.224808 0.670827 
1.34329 0.228032 0.667391 1.37876 0.230583 0.664156 1.42025 0.232997 0.660719 
1.46179 0.235054 0.657688 1.50491 0.237192 0.654876 1.54803 0.239482 0.652261 
1.5913 0.242082 0.649631 1.63327 0.244926 0.646902 1.67519 0.248135 0.643922 
1.70749 0.250962 0.641447 1.74454 0.255186 0.638434 1.78138 0.260887 0.635234 
1.81591 0.268193 0.631712 1.84885 0.271834 0.628218 1.85993 0.271869 0.627162 
1.89088 0.27204 0.624186 1.92004 0.272503 0.621685 1.94796 0.273012 0.619413 
1.97537 0.273817 0.617285 1.99469 0.274974 0.615946 2.0213 0.277096 0.614254 
2.04494 0.279174 0.612991 2.06763 0.281481 0.612246 2.09693 0.2845 0.611611 
2.11655 0.286422 0.611183 2.13866 0.288346 0.610249 2.15874 0.289558 0.608715 
2.17797 0.290718 0.607095 2.18924 0.291837 0.606357 2.19983 0.292949 0.605821 
2.20974 0.293726 0.605262 2.22329 0.294392 0.604312 2.24043 0.294954 0.602565 
2.25673 0.295523 0.600107 2.27055 0.296172 0.597402 2.28668 0.296947 0.594531 
2.33531 0.29981 0.586455 2.38546 0.302708 0.579653 2.44058 0.305159 0.575364 
2.47824 0.306238 0.573256 2.51557 0.306531 0.570428 2.5399 0.306324 0.568121 
2.60315 0.304644 0.557161 2.60327 0.304638 0.557131 0.704575 0.207298 0.598271 
0.730074 0.209641 0.597933 0.756695 0.211777 0.597259 0.783331 0.21359 0.596301 
0.812035 0.215188 0.595065 0.843276 0.216603 0.59407 0.874539 0.217823 0.593739 
0.907498 0.219267 0.594414 0.940427 0.221037 0.595636 0.962232 0.222474 0.596465 
0.992915 0.224916 0.597231 1.02356 0.227885 0.597189 1.05114 0.230985 0.596325 
1.07576 0.234056 0.594907 1.10022 0.237355 0.592993 1.12244 0.240535 0.590989 
1.14255 0.243533 0.589117 1.16251 0.246564 0.587261 1.18348 0.249728 0.585273 
1.20625 0.253079 0.583035 1.23109 0.256593 0.580507 1.25879 0.260324 0.577608 
1.28633 0.263848 0.574667 1.31736 0.267599 0.57134 1.352 0.271551 0.567653 
1.38775 0.275402 0.563922 1.42643 0.279399 0.55999 1.46491 0.283249 0.556159 
1.50512 0.287216 0.552202 1.54534 0.291137 0.548266 1.5857 0.295051 0.544308 
1.62464 0.29883 0.540457 1.66356 0.302641 0.536554 1.69964 0.306296 0.532833 
1.73568 0.310158 0.528961 1.77136 0.314359 0.524874 1.8049 0.318866 0.520539 
1.8383 0.32386 0.515666 1.86879 0.328698 0.510654 1.89698 0.333149 0.505655 
1.92329 0.33713 0.500868 1.94834 0.340767 0.496359 1.97283 0.344322 0.492084 
1.99175 0.347268 0.488909 2.01221 0.351057 0.485634 2.03112 0.355271 0.482721 
2.05243 0.360301 0.47947 2.07744 0.365385 0.47544 2.10579 0.369047 0.470239 
2.12835 0.370526 0.465565 2.14835 0.371125 0.461248 2.16739 0.371421 0.457181 
2.20279 0.372052 0.449971 2.23829 0.372957 0.443314 2.2803 0.374556 0.435946 
2.30744 0.376159 0.431188 2.35004 0.379436 0.423226 2.39804 0.384386 0.413038 
2.41545 0.386485 0.409024 2.4321 0.388432 0.405185 2.48592 0.392622 0.393268 
2.51993 0.393157 0.385803 2.53882 0.392299 0.382021 2.56203 0.389551 0.377566 
2.60327 0.38265 0.370327 0.613697 0.161521 0.702084 0.628345 0.162558 0.702613 
0.664089 0.165022 0.703749 0.695175 0.167043 0.70448 0.726368 0.168914 0.7049 
0.758272 0.170641 0.704959 0.790184 0.172161 0.704616 0.823465 0.173513 0.703832 
0.858552 0.174681 0.7026 0.894981 0.175854 0.701365 0.931411 0.177314 0.700573 
0.967977 0.179718 0.700601 1.0027 0.182949 0.701159 1.03733 0.187015 0.701887 
1.06938 0.191343 0.702295 1.10312 0.196287 0.702078 1.13416 0.201114 0.701148 
1.16445 0.206131 0.699621 1.19544 0.211381 0.697525 1.22785 0.216642 0.694919 
1.26188 0.221622 0.691897 1.29817 0.226138 0.68851 1.33456 0.22976 0.685094 
1.37657 0.232921 0.681306 1.42107 0.23539 0.677612 1.46564 0.237318 0.674324 
1.51178 0.239252 0.671302 1.55808 0.241416 0.668485 1.60437 0.243992 0.665688 
1.64949 0.24695 0.662775 1.69253 0.250262 0.65979 1.73548 0.254409 0.656691 
1.75808 0.257341 0.655124 1.78987 0.262813 0.653287 1.8281 0.271037 0.651633 
1.86482 0.27684 0.650516 1.89996 0.278719 0.649432 1.93361 0.278829 0.647753 
1.96629 0.278626 0.645497 1.99808 0.278392 0.642893 2.02938 0.27823 0.640118 
2.06012 0.27821 0.637355 2.09022 0.278296 0.634631 2.1195 0.278348 0.632034 
2.15355 0.27854 0.629074 2.17142 0.27877 0.62729 2.18098 0.279197 0.625913 
2.18859 0.279785 0.624534 2.20097 0.280726 0.622468 2.2152 0.281371 0.620659 
2.23247 0.281789 0.618755 2.25177 0.28236 0.61603 2.26383 0.282879 0.61386 
2.27875 0.283583 0.611045 2.29252 0.284143 0.608813 2.31062 0.284989 0.606015 
2.32505 0.285898 0.603635 2.37574 0.288245 0.596855 2.40857 0.289475 0.593157 
2.43827 0.290222 0.590465 2.46783 0.290795 0.588049 2.52757 0.290633 0.582687 
2.56549 0.289874 0.577727 2.60327 0.288696 0.570341 0.741466 0.141479 0.615423 
0.766292 0.143028 0.615178 0.793647 0.144465 0.614501 0.821007 0.145641 0.613535 
0.851228 0.146713 0.612615 0.881459 0.147746 0.612127 0.913576 0.14907 0.612379 
0.945425 0.150797 0.613 0.96824 0.152351 0.613526 0.997973 0.154864 0.61389 
1.02765 0.157956 0.613692 1.05407 0.161215 0.612882 1.07732 0.16445 0.611666 
1.1005 0.167965 0.610024 1.12126 0.171286 0.608252 1.13973 0.174309 0.606494 
1.1582 0.177296 0.604624 1.17781 0.180304 0.602566 1.19887 0.183273 0.600302 
1.22222 0.186222 0.597763 1.24561 0.188833 0.595223 1.27209 0.191429 0.592403 
1.30228 0.194057 0.589355 1.33251 0.19643 0.586517 1.3665 0.198978 0.583637 
1.40052 0.201462 0.581054 1.43767 0.204212 0.578515 1.47483 0.206992 0.576188 
1.51411 0.209961 0.573865 1.55348 0.212962 0.57159 1.59285 0.215977 0.5693 
1.63067 0.218911 0.567005 1.66848 0.22191 0.564585 1.70342 0.224844 0.562167 
[...]
POINT_DATA 39645
SCALARS Density float
LOOKUP_TABLE default
1.12476 1.08804 1.05304 1.01886 0.985759 0.954796 0.923123 0.909252 0.901209 
0.943573 1.01142 1.13229 1.21702 1.27069 1.28639 1.28427 1.25714 1.21786 
1.17519 1.13541 1.10518 1.07918 1.0552 1.03616 1.01791 0.997133 0.981102 
0.965541 0.958167 0.950129 0.941195 0.930236 0.91683 0.90342 0.889573 0.881761 
0.875238 0.882818 0.895127 0.921966 0.961865 1.01009 1.05576 1.09244 1.10292 
1.10491 1.10122 1.09886 1.1002 1.10928 1.13376 1.17013 1.20685 1.22969 
1.22384 1.10064 0.928859 0.790449 0.686259 0.629147 0.619373 0.672955 0.73319 
0.781908 0.837221 0.895166 0.955828 1.05084 1.08543 1.09139 0.958878 0.701269 
0.594282 0.531959 0.529593 0.60012 0.666478 0.685128 1.19562 1.18206 1.14832 
1.11485 1.08217 1.05001 1.01895 0.989828 0.983012 1.00212 1.07377 1.15535 
1.22595 1.23954 1.22047 1.1835 1.1437 1.11468 1.1022 1.10523 1.10165 
1.08153 1.05211 1.01828 0.982641 0.952746 0.924614 0.903387 0.889455 0.878477 
0.877523 0.879261 0.886255 0.901398 0.925193 0.96378 1.03433 1.07758 1.10557 
1.08267 1.04057 1.00181 0.998665 1.02463 1.11795 1.18347 1.17153 1.10986 
1.00718 0.879053 0.807772 0.770151 0.750298 0.765086 0.845639 0.985837 1.06355 
1.07736 0.984839 0.803604 0.696596 0.660666 0.663949 1.22595 1.19566 1.16172 
1.12684 1.09232 1.05863 1.0262 0.995859 0.973361 1.00339 1.0622 1.20137 
1.27495 1.30056 1.28934 1.24825 1.19317 1.15218 1.13602 1.11814 1.09157 
1.05435 1.01032 0.962782 0.924503 0.891246 0.874994 0.868262 0.870696 0.881341 
0.892923 0.906205 0.925322 0.942692 1.01234 1.10159 1.17714 1.01223 0.996479 
0.984774 0.978949 0.996408 1.01042 1.02034 1.05118 1.07988 1.05875 1.00464 
0.96763 0.956281 0.942029 0.78116 0.67981 0.665664 0.702521 0.758544 0.800851 
0.77823 0.777962 0.845336 0.904358 0.930896 0.953403 0.902343 0.861549 0.831901 
0.710349 0.710232 1.06356 1.0314 0.9993 0.977515 0.970923 1.00278 1.07221 
1.16236 1.19537 1.21613 1.1967 1.16824 1.13501 1.10908 1.0935 1.09404 
1.10133 1.10062 1.08885 1.07071 1.04883 1.02314 0.99891 0.972582 0.948759 
0.927121 0.908864 0.895273 0.88406 0.879688 0.877271 0.882243 0.891487 0.905341 
0.933854 0.972689 1.02692 1.06536 1.07742 1.06751 1.04563 1.02785 1.02508 
1.0512 1.13841 1.18731 1.16196 1.02267 0.869493 0.796819 0.775224 0.775614 
0.800735 0.820917 0.865292 0.905234 0.978805 1.09462 1.09927 1.06162 0.86903 
0.803507 0.739424 0.651441 0.742459 1.20408 1.19032 1.15438 1.12113 1.08789 
1.05471 1.0243 0.997769 0.980456 1.00927 1.1102 1.23191 1.29273 1.30086 
1.27308 1.21323 1.16286 1.14347 1.11827 1.08039 1.03231 0.980315 0.934629 
0.890182 0.869421 0.861978 0.865702 0.88282 0.899744 0.917045 0.938196 0.992396 
1.0275 1.13689 1.15963 1.1093 1.00797 0.981462 0.971354 0.970809 0.979041 
0.995758 1.00066 0.998564 0.994462 0.912732 0.824989 0.76289 0.796031 0.850961 
0.876621 0.848418 0.804139 0.841749 0.870937 0.87076 0.85685 0.903543 0.93068 
0.931505 0.930609 0.858718 0.795719 0.733147 0.99372 0.963343 0.938366 0.939732 
0.958129 1.06243 1.17039 1.23371 1.26852 1.27645 1.26016 1.22675 1.18246 
1.13727 1.11132 1.09977 1.08873 1.07193 1.05148 1.02745 1.00501 0.981099 
0.958636 0.940549 0.924181 0.912376 0.900448 0.891621 0.882747 0.879314 0.878872 
0.885583 0.901834 0.924055 0.974123 1.02268 1.07061 1.08623 1.08477 1.07086 
1.06094 1.05856 1.06459 1.08109 1.12136 1.18429 1.21577 1.19928 1.09111 
0.945063 0.834007 0.760383 0.724305 0.714671 0.725143 0.747753 0.848317 0.949615 
1.05231 1.09052 1.06458 0.908803 0.769313 0.666019 0.603657 0.570188 0.5786 
0.585417 0.620695 1.18622 1.151 1.11405 1.077 1.04152 1.01121 0.992215 
1.0287 1.11285 1.19051 1.23841 1.23257 1.18164 1.13038 1.10459 1.10843 
1.10212 1.07478 1.03664 0.99436 0.957394 0.924727 0.895472 0.880198 0.875122 
0.875572 0.885296 0.901156 0.925376 0.962217 1.04646 1.1043 1.12661 1.12358 
1.00776 0.964467 0.94468 0.953333 1.00158 1.10728 1.1563 1.0742 0.959456 
0.863439 0.785828 0.76463 0.77709 0.868922 0.940831 1.02323 1.02005 0.89996 
0.861536 0.764759 1.17268 1.13808 1.10324 1.069 1.03603 1.00704 1.00311 
1.0056 1.07201 1.13821 1.1936 1.19328 1.16761 1.13128 1.09568 1.08347 
1.09713 1.09678 1.07395 1.04222 1.00904 0.976413 0.945003 0.919964 0.900397 
0.884842 0.879914 0.879465 0.883952 0.898625 0.922117 0.957142 1.01295 1.07106 
1.09774 1.08385 1.04559 1.00372 0.997779 1.03628 1.13075 1.1831 1.07147 
0.941049 0.847581 0.791567 0.776787 0.794263 0.87323 0.969878 1.04391 1.04729 
0.964366 0.877036 0.831965 0.766429 0.754804 1.14452 1.10572 1.06902 1.03216 
0.996927 0.963506 0.931972 0.924681 0.933107 1.02016 1.08896 1.17043 1.21177 
1.21602 1.21384 1.17651 1.13952 1.10925 1.09526 1.0926 1.09896 1.10269 
1.09678 1.08513 1.06967 1.05116 1.03048 1.00803 0.988669 0.967777 0.95179 
0.934069 0.918468 0.903928 0.89194 0.883131 0.878421 0.879812 0.883271 0.897021 
0.915487 0.946373 0.986039 1.03201 1.0603 1.07039 1.06442 1.04548 1.03608 
1.03644 1.05686 1.11773 1.18983 1.18068 1.09344 0.881071 0.755452 0.728516 
0.743562 0.773339 0.802503 0.805903 0.816866 0.828308 0.906422 1.00333 1.05 
1.06247 0.980875 0.8787 0.825992 0.581705 0.571072 0.605791 0.660161 0.66495 
1.02185 0.986762 0.956027 0.929362 0.911415 0.931743 0.972021 1.08322 1.19305 
1.24463 1.27405 1.27466 1.25578 1.22384 1.18295 1.13985 1.10936 1.091 
1.07595 1.06022 1.04253 1.02263 1.00155 0.981596 0.96723 0.952506 0.942052 
0.929856 0.917348 0.904854 0.892755 0.88378 0.878258 0.880874 0.887425 0.911652 
0.94169 0.99041 1.03853 1.08507 1.096 1.09704 1.08725 1.0803 1.08087 
1.09037 1.11293 1.15732 1.20903 1.24286 1.2245 1.06693 0.908412 0.804465 
0.729844 0.695238 0.691154 0.704486 0.734549 0.793485 0.881776 0.975478 1.068 
1.11274 1.08755 0.880631 0.755288 0.622856 0.511318 0.431048 0.464177 0.586355 
0.776618 1.08224 1.04808 1.01691 0.995602 0.988535 1.04642 1.10009 1.18815 
1.22092 1.22354 1.19663 1.15237 1.11669 1.09738 1.10136 1.10367 1.08779 
1.06124 1.02382 0.985058 0.952754 0.924472 0.899612 0.886244 0.878434 0.875766 
0.882837 0.895007 0.914672 0.9513 1.01014 1.07082 1.10637 1.09426 1.03756 
0.998347 0.981551 0.994541 1.10864 1.17725 1.178 1.10771 0.976906 0.861079 
0.78701 0.755556 0.765884 0.824795 0.914419 1.019 1.06498 1.05561 0.936355 
0.767684 0.725223 1.15843 1.12455 1.09443 1.06502 1.03552 1.00581 0.982623 
0.972172 1.02358 1.12646 1.26521 1.32581 1.34639 1.32939 1.28965 1.24338 
1.20427 1.17436 1.13232 1.08379 1.03236 0.971364 0.907649 0.865194 0.834594 
0.841621 0.855803 0.878208 0.899327 0.918446 0.933045 0.954986 0.988164 1.06898 
1.09091 1.09422 1.08615 1.03176 0.965435 0.920836 0.889693 0.872525 0.887694 
0.951362 1.0487 1.06296 1.02915 0.940854 0.796555 0.781872 0.804097 0.876207 
0.920834 0.942757 0.947467 0.928081 0.940732 0.937677 0.904405 0.924115 0.911736 
0.878907 1.13106 1.09434 1.0579 1.023 0.995136 0.992281 1.03285 1.18177 
1.27181 1.30492 1.28653 1.23282 1.17736 1.15554 1.12968 1.09088 1.04252 
0.988209 0.934932 0.887295 0.865664 0.854138 0.860011 0.874774 0.894098 0.913715 
0.93451 0.969412 1.03096 1.15903 1.17236 1.17031 1.13526 1.08194 1.01414 
0.905754 0.826343 0.796741 0.816192 0.904757 1.01205 1.01852 0.971182 0.925351 
0.846554 0.861118 0.890577 0.891271 0.890319 0.909552 0.913615 0.927475 0.954707 
0.958202 0.95389 0.860977 0.82673 0.805031 1.06743 1.03208 0.998289 0.96512 
0.93397 0.915021 0.90433 0.94524 1.00402 1.11311 1.20583 1.24188 1.25403 
1.24371 1.21114 1.17406 1.13909 1.11172 1.09523 1.08685 1.0794 1.06694 
1.0483 1.02787 1.00722 0.986547 0.972734 0.957588 0.944363 0.931042 0.917415 
0.904652 0.892341 0.884313 0.878533 0.88279 0.889834 0.912346 0.943633 0.988608 
1.0378 1.08398 1.0946 1.09631 1.08706 1.07771 1.0743 1.08058 1.10543 
1.15964 1.21957 1.24673 1.20058 1.14461 1.00614 0.858843 0.766074 0.722335 
0.708182 0.720369 0.747982 0.759414 0.798657 0.839524 0.928466 1.00452 1.1143 
1.04415 0.743528 0.550747 0.493415 0.537133 0.650131 0.70047 0.715512 1.11677 
1.1025 1.06695 1.03365 1.00389 0.988584 1.00794 1.15224 1.26231 1.31236 
1.32141 1.28609 1.23062 1.18976 1.16443 1.12734 1.07468 1.01328 0.947788 
0.897516 0.860132 0.841377 0.849264 0.864528 0.891788 0.914854 0.935368 0.954883 
1.00301 1.05884 1.14017 1.10868 1.06626 1.01689 0.965751 0.917202 0.865647 
0.864037 0.949652 1.05793 1.01071 0.924968 0.809581 0.768917 0.789279 0.839039 
0.874178 0.923992 0.972996 0.964848 0.978656 0.957087 0.9538 0.907528 0.896574 
0.876391 0.999825 0.967251 0.93458 0.918319 0.91497 0.962465 1.03835 1.15424 
1.21946 1.26143 1.25605 1.23771 1.20643 1.16309 1.12684 1.10333 1.09238 
1.08391 1.07165 1.05518 1.03495 1.01281 0.991115 0.974274 0.957196 0.944793 
0.930544 0.917416 0.904563 0.892906 0.88406 0.878654 0.880745 0.886712 0.908821 
0.93664 0.982477 1.03084 1.08127 1.09371 1.09434 1.0833 1.07269 1.06976 
1.07642 1.10169 1.1571 1.21862 1.23549 1.19771 1.04034 0.881382 0.785371 
0.73254 0.714081 0.724266 0.745886 0.760618 0.791044 0.836787 0.890804 1.00677 
1.10658 1.05464 0.715334 0.555731 0.61544 0.629879 0.697564 1.18932 1.15675 
1.12255 1.08772 1.05344 1.02091 0.993163 1.00104 1.01863 1.1531 1.25007 
1.29469 1.2844 1.23375 1.17599 1.15554 1.13471 1.10052 1.0572 0.999051 
0.945344 0.894817 0.864517 0.856676 0.863306 0.882512 0.904518 0.925765 0.947562 
0.998843 1.06378 1.15115 1.21065 1.13381 1.09105 1.00127 0.936204 0.890301 
0.862866 0.862581 0.944733 1.02606 0.98366 0.860167 0.825549 0.905012 0.92783 
0.948798 0.957492 0.973257 0.991455 0.882427 0.822578 0.819369 1.19466 1.16008 
1.12772 1.09571 1.06371 1.03246 1.00251 0.980638 0.991009 1.0228 1.10297 
1.16833 1.19423 1.18612 1.16009 1.1282 1.10062 1.08568 1.08633 1.09779 
1.10302 1.09302 1.07455 1.05219 1.02654 1.00202 0.975981 0.950986 0.928138 
0.907847 0.894567 0.883269 0.879169 0.879359 0.883987 0.896949 0.915545 0.941577 
0.988651 1.03135 1.06721 1.07477 1.05694 1.035 1.02294 1.04156 1.12723 
1.17784 1.16289 1.07612 0.92848 0.838026 0.792612 0.799923 0.81808 0.837555 
0.876167 0.933605 0.991631 1.07862 0.946335 0.804918 0.731782 0.684518 0.73531 
1.07581 1.04461 1.01326 0.984678 0.970013 0.965215 1.0386 1.12192 1.2123 
1.25727 1.26855 1.2436 1.19925 1.15616 1.12501 1.11127 1.1075 1.09929 
1.08175 1.05502 1.02526 0.993677 0.960038 0.932668 0.910662 0.89466 0.885471 
0.878518 0.879074 0.881138 0.888591 0.903056 0.921289 0.973185 1.01665 1.08422 
1.08757 1.07547 1.05045 1.02635 1.01427 1.01884 1.04437 1.10767 1.17738 
1.15709 1.03204 0.905239 0.815979 0.75568 0.730701 0.746631 0.812104 0.952652 
1.03939 1.07127 0.945581 0.764462 0.653596 0.649377 0.660637 1.2 1.16632 
1.13413 1.10248 1.0705 1.03932 1.00897 0.979449 0.9675 0.976672 1.05392 
1.14581 1.24694 1.27476 1.2736 1.24648 1.20313 1.15714 1.12925 1.11516 
1.10811 1.0956 1.07323 1.0442 1.01013 0.977844 0.94623 0.917933 0.900386 
0.885364 0.881499 0.878326 0.880654 0.886038 0.894391 0.914045 0.945469 0.998183 
1.05268 1.10923 1.06473 1.03761 1.01934 1.01024 1.01477 1.03235 1.06826 
1.1382 1.16621 1.10795 0.979505 0.871561 0.791204 0.728567 0.724261 0.78959 
0.94081 1.00888 1.04316 1.05164 1.02264 0.981652 0.911356 0.714979 0.665647 
0.677204 1.16149 1.20419 1.24495 1.28535 1.32407 1.35968 1.38892 1.40951 
1.41885 1.41973 1.41326 1.33335 1.12188 0.999735 0.985437 0.989897 1.22705 
1.25255 1.27898 1.30957 1.3236 1.27882 1.14739 1.0262 0.990151 0.995584 
1.23644 1.26331 1.29701 1.32035 1.27997 1.14139 1.02612 0.992454 0.997114 
1.09643 1.12913 1.16223 1.19647 1.23017 1.26163 1.28815 1.30808 1.33058 
1.35068 1.33127 1.21421 1.05855 0.993765 0.994247 1.23529 1.26764 1.30147 
1.30204 1.22118 1.081 0.998147 0.994848 0.997118 1.0274 1.06095 1.09514 
1.12893 1.1642 1.20072 1.23823 1.2726 1.30402 1.33125 1.3511 1.36281 
1.37984 1.35333 1.21634 1.04405 0.989174 0.993622 1.19959 1.23186 1.26621 
1.29692 1.28018 1.17653 1.03137 0.99334 0.997284 0.997598 1.20435 1.2331 
1.26645 1.29987 1.31142 1.24614 1.10304 1.00146 0.993481 0.996129 1.16021 
1.20234 1.24306 1.28292 1.32048 1.35405 1.38029 1.39609 1.40229 1.4086 
1.35574 1.15262 1.00652 0.986417 0.990352 1.05751 1.09285 1.1291 1.16705 
1.20922 1.24835 1.28653 1.32223 1.35388 1.37881 1.39445 1.40029 1.40595 
1.35487 1.17256 1.01695 0.986876 0.991779 1.11762 1.15336 1.18781 1.21895 
1.24594 1.2797 1.31075 1.30189 1.20748 1.09825 1.00946 0.992464 0.995981 
1.19131 1.22111 1.24686 1.27213 1.30368 1.32128 1.28285 1.14713 1.03041 
0.992255 0.996995 0.997089 1.1456 1.18061 1.213 1.2442 1.27748 1.30152 
1.27315 1.16302 1.03288 0.993257 0.997061 0.997655 1.10255 1.14008 1.18037 
1.22246 1.26414 1.30309 1.34042 1.37319 1.39866 1.41156 1.41514 1.41467 
1.36931 1.155 1.00693 0.983967 0.989693 1.15193 1.18523 1.21628 1.24692 
1.27925 1.30033 1.27795 1.17383 1.03121 0.994294 0.996876 0.997774 1.03495 
1.07058 1.10583 1.14205 1.18122 1.22267 1.26268 1.29979 1.33317 1.3635 
1.38509 1.39575 1.40169 1.40248 1.29992 1.09349 0.991947 0.988585 0.991151 
1.2202 1.2567 1.28858 1.28823 1.20964 1.083 1.00244 0.99433 0.998167 
1.20843 1.24149 1.26797 1.29067 1.31484 1.34042 1.32223 1.20146 1.05519 
0.993129 0.995276 1.10757 1.13895 1.17111 1.2045 1.23586 1.26238 1.28501 
1.30904 1.33716 1.31928 1.21597 1.08486 1.00154 0.992762 0.994563 1.23166 
1.25956 1.28184 1.30664 1.33461 1.31892 1.22741 1.08744 0.997964 0.9937 
0.994759 1.08804 1.12476 1.05304 1.01886 0.985759 0.954796 0.923123 0.909252 
0.901209 0.943573 1.01142 1.13229 1.21702 1.27069 1.28639 1.28427 1.25714 
1.21786 1.17519 1.13541 1.10518 1.07918 1.0552 1.03616 1.01791 0.997133 
0.981102 0.965541 0.958167 0.950129 0.941195 0.930236 0.91683 0.90342 0.889573 
0.881761 0.875238 0.882818 0.895127 0.921966 0.961865 1.01009 1.05576 1.09244 
1.10292 1.10491 1.10122 1.09886 1.1002 1.10928 1.13376 1.17013 1.20685 
1.22969 1.22384 1.10064 0.928859 0.790449 0.686259 0.629147 0.619373 0.672955 
0.73319 0.781908 0.837221 0.895166 0.955828 1.05084 1.08543 1.09139 0.958878 
0.701269 0.594282 0.531959 0.529593 0.60012 0.666478 0.685128 1.18206 1.19562 
1.14832 1.11485 1.08217 1.05001 1.01895 0.989828 0.983012 1.00212 1.07377 
1.15535 1.22595 1.23954 1.22047 1.1835 1.1437 1.11468 1.1022 1.10523 
1.10165 1.08153 1.05211 1.01828 0.982641 0.952746 0.924614 0.903387 0.889455 
0.878477 0.877523 0.879261 0.886255 0.901398 0.925193 0.96378 1.03433 1.07758 
1.10557 1.08267 1.04057 1.00181 0.998665 1.02463 1.11795 1.18347 1.17153 
1.10986 1.00718 0.879053 0.807772 0.770151 0.750298 0.765086 0.845639 0.985837 
1.06355 1.07736 0.984839 0.803604 0.696596 0.660666 0.663949 1.19566 1.22595 
1.16172 1.12684 1.09232 1.05863 1.0262 0.995859 0.973361 1.00339 1.0622 
1.20137 1.27495 1.30056 1.28934 1.24825 1.19317 1.15218 1.13602 1.11814 
1.09157 1.05435 1.01032 0.962782 0.924503 0.891246 0.874994 0.868262 0.870696 
0.881341 0.892923 0.906205 0.925322 0.942692 1.01234 1.10159 1.17714 1.01223 
0.996479 0.984774 0.978949 0.996408 1.01042 1.02034 1.05118 1.07988 1.05875 
1.00464 0.96763 0.956281 0.942029 0.78116 0.67981 0.665664 0.702521 0.758544 
0.800851 0.77823 0.777962 0.845336 0.904358 0.930896 0.953403 0.902343 0.861549 
0.831901 0.710349 0.710232 1.0314 1.06356 0.9993 0.977515 0.970923 1.00278 
1.07221 1.16236 1.19537 1.21613 1.1967 1.16824 1.13501 1.10908 1.0935 
1.09404 1.10133 1.10062 1.08885 1.07071 1.04883 1.02314 0.99891 0.972582 
0.948759 0.927121 0.908864 0.895273 0.88406 0.879688 0.877271 0.882243 0.891487 
0.905341 0.933854 0.972689 1.02692 1.06536 1.07742 1.06751 1.04563 1.02785 
1.02508 1.0512 1.13841 1.18731 1.16196 1.02267 0.869493 0.796819 0.775224 
0.775614 0.800735 0.820917 0.865292 0.905234 0.978805 1.09462 1.09927 1.06162 
0.86903 0.803507 0.739424 0.651441 0.742459 1.19032 1.20408 1.15438 1.12113 
1.08789 1.05471 1.0243 0.997769 0.980456 1.00927 1.1102 1.23191 1.29273 
1.30086 1.27308 1.21323 1.16286 1.14347 1.11827 1.08039 1.03231 0.980315 
0.934629 0.890182 0.869421 0.861978 0.865702 0.88282 0.899744 0.917045 0.938196 
0.992396 1.0275 1.13689 1.15963 1.1093 1.00797 0.981462 0.971354 0.970809 
0.979041 0.995758 1.00066 0.998564 0.994462 0.912732 0.824989 0.76289 0.796031 
0.850961 0.876621 0.848418 0.804139 0.841749 0.870937 0.87076 0.85685 0.903543 
0.93068 0.931505 0.930609 0.858718 0.795719 0.733147 0.963343 0.99372 0.938366 
0.939732 0.958129 1.06243 1.17039 1.23371 1.26852 1.27645 1.26016 1.22675 
1.18246 1.13727 1.11132 1.09977 1.08873 1.07193 1.05148 1.02745 1.00501 
0.981099 0.958636 0.940549 0.924181 0.912376 0.900448 0.891621 0.882747 0.879314 
0.878872 0.885583 0.901834 0.924055 0.974123 1.02268 1.07061 1.08623 1.08477 
1.07086 1.06094 1.05856 1.06459 1.08109 1.12136 1.18429 1.21577 1.19928 
1.09111 0.945063 0.834007 0.760383 0.724305 0.714671 0.725143 0.747753 0.848317 
0.949615 1.05231 1.09052 1.06458 0.908803 0.769313 0.666019 0.603657 0.570188 
0.5786 0.585417 0.620695 1.151 1.18622 1.11405 1.077 1.04152 1.01121 
0.992215 1.0287 1.11285 1.19051 1.23841 1.23257 1.18164 1.13038 1.10459 
1.10843 1.10212 1.07478 1.03664 0.99436 0.957394 0.924727 0.895472 0.880198 
0.875122 0.875572 0.885296 0.901156 0.925376 0.962217 1.04646 1.1043 1.12661 
1.12358 1.00776 0.964467 0.94468 0.953333 1.00158 1.10728 1.1563 1.0742 
0.959456 0.863439 0.785828 0.76463 0.77709 0.868922 0.940831 1.02323 1.02005 
0.89996 0.861536 0.764759 1.13808 1.17268 1.10324 1.069 1.03603 1.00704 
1.00311 1.0056 1.07201 1.13821 1.1936 1.19328 1.16761 1.13128 1.09568 
1.08347 1.09713 1.09678 1.07395 1.04222 1.00904 0.976413 0.945003 0.919964 
0.900397 0.884842 0.879914 0.879465 0.883952 0.898625 0.922117 0.957142 1.01295 
1.07106 1.09774 1.08385 1.04559 1.00372 0.997779 1.03628 1.13075 1.1831 
1.07147 0.941049 0.847581 0.791567 0.776787 0.794263 0.87323 0.969878 1.04391 
1.04729 0.964366 0.877036 0.831965 0.766429 0.754804 1.10572 1.14452 1.06902 
1.03216 0.996927 0.963506 0.931972 0.924681 0.933107 1.02016 1.08896 1.17043 
1.21177 1.21602 1.21384 1.17651 1.13952 1.10925 1.09526 1.0926 1.09896 
1.10269 1.09678 1.08513 1.06967 1.05116 1.03048 1.00803 0.988669 0.967777 
0.95179 0.934069 0.918468 0.903928 0.89194 0.883131 0.878421 0.879812 0.883271 
0.897021 0.915487 0.946373 0.986039 1.03201 1.0603 1.07039 1.06442 1.04548 
1.03608 1.03644 1.05686 1.11773 1.18983 1.18068 1.09344 0.881071 0.755452 
0.728516 0.743562 0.773339 0.802503 0.805903 0.816866 0.828308 0.906422 1.00333 
1.05 1.06247 0.980875 0.8787 0.825992 0.581705 0.571072 0.605791 0.660161 
0.66495 0.986762 1.02185 0.956027 0.929362 0.911415 0.931743 0.972021 1.08322 
1.19305 1.24463 1.27405 1.27466 1.25578 1.22384 1.18295 1.13985 1.10936 
1.091 1.07595 1.06022 1.04253 1.02263 1.00155 0.981596 0.96723 0.952506 
0.942052 0.929856 0.917348 0.904854 0.892755 0.88378 0.878258 0.880874 0.887425 
0.911652 0.94169 0.99041 1.03853 1.08507 1.096 1.09704 1.08725 1.0803 
1.08087 1.09037 1.11293 1.15732 1.20903 1.24286 1.2245 1.06693 0.908412 
0.804465 0.729844 0.695238 0.691154 0.704486 0.734549 0.793485 0.881776 0.975478 
1.068 1.11274 1.08755 0.880631 0.755288 0.622856 0.511318 0.431048 0.464177 
0.586355 0.776618 1.04808 1.08224 1.01691 0.995602 0.988535 1.04642 1.10009 
1.18815 1.22092 1.22354 1.19663 1.15237 1.11669 1.09738 1.10136 1.10367 
1.08779 1.06124 1.02382 0.985058 0.952754 0.924472 0.899612 0.886244 0.878434 
0.875766 0.882837 0.895007 0.914672 0.9513 1.01014 1.07082 1.10637 1.09426 
1.03756 0.998347 0.981551 0.994541 1.10864 1.17725 1.178 1.10771 0.976906 
0.861079 0.78701 0.755556 0.765884 0.824795 0.914419 1.019 1.06498 1.05561 
0.936355 0.767684 0.725223 1.12455 1.15843 1.09443 1.06502 1.03552 1.00581 
0.982623 0.972172 1.02358 1.12646 1.26521 1.32581 1.34639 1.32939 1.28965 
1.24338 1.20427 1.17436 1.13232 1.08379 1.03236 0.971364 0.907649 0.865194 
0.834594 0.841621 0.855803 0.878208 0.899327 0.918446 0.933045 0.954986 0.988164 
1.06898 1.09091 1.09422 1.08615 1.03176 0.965435 0.920836 0.889693 0.872525 
0.887694 0.951362 1.0487 1.06296 1.02915 0.940854 0.796555 0.781872 0.804097 